<?xml version="1.0" encoding="UTF-8"?>

<!-- generated on 2025-04-12 21:23:36 by Eclipse SUMO GUI Version 1.21.0
<sumoConfiguration xmlns:xsi="http://www.w3.org/2001/XMLSchema-instance" xsi:noNamespaceSchemaLocation="http://sumo.dlr.de/xsd/sumoConfiguration.xsd">

    <input>
        <net-file value="data/GC_GQ.net.xml"/>
        <route-files value="data/GC_GQ.rou.xml"/>
        <additional-files value="data/inductionLoop.add.xml"/>
    </input>

    <output>
        <tripinfo-output value="tripinfo.xml"/>
    </output>

    <traci_server>
        <remote-port value="12441"/>
    </traci_server>

</sumoConfiguration>
-->

<tripinfos xmlns:xsi="http://www.w3.org/2001/XMLSchema-instance" xsi:noNamespaceSchemaLocation="http://sumo.dlr.de/xsd/tripinfo_file.xsd">
    <tripinfo id="e-w-small.0" depart="0.00" departLane="E_i_4" departPos="5.10" departSpeed="0.00" departDelay="0.00" arrival="25.00" arrivalLane="W_o_5" arrivalPos="221.49" arrivalSpeed="29.00" duration="25.00" routeLength="513.20" waitingTime="0.00" waitingCount="0" stopTime="0.00" timeLoss="6.64" rerouteNo="0" devices="tripinfo_e-w-small.0" vType="passenger" speedFactor="1.05" vaporized=""/>
    <tripinfo id="e-w-medium.0" depart="0.00" departLane="E_i_3" departPos="7.20" departSpeed="0.00" departDelay="0.00" arrival="32.00" arrivalLane="W_o_4" arrivalPos="221.49" arrivalSpeed="28.13" duration="32.00" routeLength="511.10" waitingTime="0.00" waitingCount="0" stopTime="0.00" timeLoss="13.81" rerouteNo="0" devices="tripinfo_e-w-medium.0" vType="truck" speedFactor="1.01" vaporized=""/>
    <tripinfo id="s-e-big.0" depart="0.00" departLane="S_i_2" departPos="16.60" departSpeed="0.00" departDelay="0.00" arrival="33.00" arrivalLane="E_o_1" arrivalPos="133.21" arrivalSpeed="27.03" duration="33.00" routeLength="465.49" waitingTime="0.00" waitingCount="0" stopTime="0.00" timeLoss="14.85" rerouteNo="0" devices="tripinfo_s-e-big.0" vType="trailer" speedFactor="0.99" vaporized=""/>
    <tripinfo id="e-w-big.0" depart="0.00" departLane="E_i_2" departPos="16.60" departSpeed="0.00" departDelay="0.00" arrival="35.00" arrivalLane="W_o_1" arrivalPos="221.49" arrivalSpeed="27.18" duration="35.00" routeLength="501.70" waitingTime="0.00" waitingCount="0" stopTime="0.00" timeLoss="17.71" rerouteNo="0" devices="tripinfo_e-w-big.0" vType="trailer" speedFactor="1.05" vaporized=""/>
    <tripinfo id="e-w-small.1" depart="6.00" departLane="E_i_4" departPos="5.10" departSpeed="0.00" departDelay="0.53" arrival="35.00" arrivalLane="W_o_5" arrivalPos="221.49" arrivalSpeed="30.32" duration="29.00" routeLength="513.20" waitingTime="0.00" waitingCount="0" stopTime="0.00" timeLoss="11.34" rerouteNo="0" devices="tripinfo_e-w-small.1" vType="passenger" speedFactor="1.10" vaporized=""/>
    <tripinfo id="e-w-small.2" depart="11.00" departLane="E_i_3" departPos="5.10" departSpeed="0.00" departDelay="0.06" arrival="37.00" arrivalLane="W_o_5" arrivalPos="221.49" arrivalSpeed="27.38" duration="26.00" routeLength="513.20" waitingTime="0.00" waitingCount="0" stopTime="0.00" timeLoss="7.66" rerouteNo="0" devices="tripinfo_e-w-small.2" vType="passenger" speedFactor="1.03" vaporized=""/>
    <tripinfo id="s-e-bus.0" depart="6.00" departLane="S_i_2" departPos="12.10" departSpeed="0.00" departDelay="6.00" arrival="39.00" arrivalLane="E_o_1" arrivalPos="133.21" arrivalSpeed="27.38" duration="33.00" routeLength="469.99" waitingTime="0.00" waitingCount="0" stopTime="0.00" timeLoss="15.35" rerouteNo="0" devices="tripinfo_s-e-bus.0" vType="bus" speedFactor="1.00" vaporized=""/>
    <tripinfo id="w-s-medium.0" depart="0.00" departLane="W_i_1" departPos="7.20" departSpeed="0.00" departDelay="0.00" arrival="39.00" arrivalLane="S_o_1" arrivalPos="214.05" arrivalSpeed="23.09" duration="39.00" routeLength="479.36" waitingTime="0.00" waitingCount="0" stopTime="0.00" timeLoss="20.62" rerouteNo="0" devices="tripinfo_w-s-medium.0" vType="truck" speedFactor="0.99" vaporized=""/>
    <tripinfo id="e-n-big.0" depart="0.00" departLane="E_i_1" departPos="16.60" departSpeed="0.00" departDelay="0.00" arrival="41.00" arrivalLane="N_o_1" arrivalPos="211.44" arrivalSpeed="20.33" duration="41.00" routeLength="448.49" waitingTime="0.00" waitingCount="0" stopTime="0.00" timeLoss="21.18" rerouteNo="0" devices="tripinfo_e-n-big.0" vType="trailer" speedFactor="1.02" vaporized=""/>
    <tripinfo id="e-w-small.3" depart="17.00" departLane="E_i_2" departPos="5.10" departSpeed="0.00" departDelay="0.59" arrival="41.00" arrivalLane="W_o_3" arrivalPos="221.49" arrivalSpeed="29.96" duration="24.00" routeLength="513.20" waitingTime="0.00" waitingCount="0" stopTime="0.00" timeLoss="6.72" rerouteNo="0" devices="tripinfo_e-w-small.3" vType="passenger" speedFactor="1.09" vaporized=""/>
    <tripinfo id="s-e-medium.0" depart="11.00" departLane="S_i_2" departPos="7.20" departSpeed="0.00" departDelay="11.00" arrival="43.00" arrivalLane="E_o_1" arrivalPos="133.21" arrivalSpeed="25.61" duration="32.00" routeLength="474.89" waitingTime="0.00" waitingCount="0" stopTime="0.00" timeLoss="12.85" rerouteNo="0" devices="tripinfo_s-e-medium.0" vType="truck" speedFactor="0.94" vaporized=""/>
    <tripinfo id="e-s-big.0" depart="0.00" departLane="E_i_5" departPos="16.60" departSpeed="0.00" departDelay="0.00" arrival="44.00" arrivalLane="S_o_3" arrivalPos="214.05" arrivalSpeed="21.00" duration="44.00" routeLength="517.58" waitingTime="0.00" waitingCount="0" stopTime="0.00" timeLoss="22.44" rerouteNo="0" devices="tripinfo_e-s-big.0" vType="trailer" speedFactor="0.94" vaporized=""/>
    <tripinfo id="e-s-medium.0" depart="0.00" departLane="E_i_6" departPos="7.20" departSpeed="0.00" departDelay="0.00" arrival="44.00" arrivalLane="S_o_4" arrivalPos="214.05" arrivalSpeed="23.68" duration="44.00" routeLength="521.83" waitingTime="0.00" waitingCount="0" stopTime="0.00" timeLoss="22.33" rerouteNo="0" devices="tripinfo_e-s-medium.0" vType="truck" speedFactor="0.97" vaporized=""/>
    <tripinfo id="e-n-medium.0" depart="5.00" departLane="E_i_1" departPos="7.20" departSpeed="0.00" departDelay="5.00" arrival="45.00" arrivalLane="N_o_1" arrivalPos="211.44" arrivalSpeed="20.29" duration="40.00" routeLength="457.89" waitingTime="0.00" waitingCount="0" stopTime="0.00" timeLoss="17.92" rerouteNo="0" devices="tripinfo_e-n-medium.0" vType="truck" speedFactor="0.92" vaporized=""/>
    <tripinfo id="e-s-small.0" depart="4.00" departLane="E_i_5" departPos="5.10" departSpeed="0.00" departDelay="4.00" arrival="45.00" arrivalLane="S_o_4" arrivalPos="214.05" arrivalSpeed="23.46" duration="41.00" routeLength="523.93" waitingTime="0.00" waitingCount="0" stopTime="0.00" timeLoss="16.92" rerouteNo="0" devices="tripinfo_e-s-small.0" vType="passenger" speedFactor="0.86" vaporized=""/>
    <tripinfo id="s-e-small.0" depart="15.00" departLane="S_i_2" departPos="5.10" departSpeed="0.00" departDelay="15.00" arrival="46.00" arrivalLane="E_o_1" arrivalPos="133.21" arrivalSpeed="21.97" duration="31.00" routeLength="476.99" waitingTime="0.00" waitingCount="0" stopTime="0.00" timeLoss="9.02" rerouteNo="0" devices="tripinfo_s-e-small.0" vType="passenger" speedFactor="0.83" vaporized=""/>
    <tripinfo id="e-s-small.1" depart="12.00" departLane="E_i_5" departPos="5.10" departSpeed="0.00" departDelay="0.89" arrival="46.00" arrivalLane="S_o_3" arrivalPos="214.05" arrivalSpeed="23.96" duration="34.00" routeLength="529.08" waitingTime="0.00" waitingCount="0" stopTime="0.00" timeLoss="12.40" rerouteNo="0" devices="tripinfo_e-s-small.1" vType="passenger" speedFactor="0.96" vaporized=""/>
    <tripinfo id="e-w-small.4" depart="22.00" departLane="E_i_3" departPos="5.10" departSpeed="0.00" departDelay="0.12" arrival="46.00" arrivalLane="W_o_4" arrivalPos="221.49" arrivalSpeed="31.73" duration="24.00" routeLength="513.20" waitingTime="0.00" waitingCount="0" stopTime="0.00" timeLoss="8.19" rerouteNo="0" devices="tripinfo_e-w-small.4" vType="passenger" speedFactor="1.17" vaporized=""/>
    <tripinfo id="e-n-small.0" depart="9.00" departLane="E_i_1" departPos="5.10" departSpeed="0.00" departDelay="9.00" arrival="47.00" arrivalLane="N_o_1" arrivalPos="211.44" arrivalSpeed="23.18" duration="38.00" routeLength="459.99" waitingTime="0.00" waitingCount="0" stopTime="0.00" timeLoss="17.96" rerouteNo="0" devices="tripinfo_e-n-small.0" vType="passenger" speedFactor="1.05" vaporized=""/>
    <tripinfo id="s-e-small.1" depart="18.00" departLane="S_i_2" departPos="5.10" departSpeed="0.00" departDelay="5.10" arrival="47.00" arrivalLane="E_o_1" arrivalPos="133.21" arrivalSpeed="24.06" duration="29.00" routeLength="476.99" waitingTime="0.00" waitingCount="0" stopTime="0.00" timeLoss="11.92" rerouteNo="0" devices="tripinfo_s-e-small.1" vType="passenger" speedFactor="1.04" vaporized=""/>
    <tripinfo id="w-s-small.0" depart="4.00" departLane="W_i_1" departPos="5.10" departSpeed="0.00" departDelay="4.00" arrival="49.00" arrivalLane="S_o_1" arrivalPos="214.05" arrivalSpeed="30.72" duration="45.00" routeLength="481.46" waitingTime="6.00" waitingCount="1" stopTime="0.00" timeLoss="29.75" rerouteNo="0" devices="tripinfo_w-s-small.0" vType="passenger" speedFactor="1.18" vaporized=""/>
    <tripinfo id="s-e-small.2" depart="26.00" departLane="S_i_2" departPos="5.10" departSpeed="0.00" departDelay="0.19" arrival="51.00" arrivalLane="E_o_1" arrivalPos="133.21" arrivalSpeed="27.06" duration="25.00" routeLength="476.99" waitingTime="0.00" waitingCount="0" stopTime="0.00" timeLoss="6.85" rerouteNo="0" devices="tripinfo_s-e-small.2" vType="passenger" speedFactor="1.00" vaporized=""/>
    <tripinfo id="e-w-small.5" depart="28.00" departLane="E_i_1" departPos="5.10" departSpeed="0.00" departDelay="0.64" arrival="56.00" arrivalLane="W_o_1" arrivalPos="221.49" arrivalSpeed="23.88" duration="28.00" routeLength="513.20" waitingTime="0.00" waitingCount="0" stopTime="0.00" timeLoss="6.74" rerouteNo="0" devices="tripinfo_e-w-small.5" vType="passenger" speedFactor="0.90" vaporized=""/>
    <tripinfo id="e-s-small.2" depart="23.00" departLane="E_i_6" departPos="5.10" departSpeed="0.00" departDelay="0.78" arrival="57.00" arrivalLane="S_o_4" arrivalPos="214.05" arrivalSpeed="27.34" duration="34.00" routeLength="523.93" waitingTime="0.00" waitingCount="0" stopTime="0.00" timeLoss="12.89" rerouteNo="0" devices="tripinfo_e-s-small.2" vType="passenger" speedFactor="1.02" vaporized=""/>
    <tripinfo id="e-w-small.6" depart="33.00" departLane="E_i_2" departPos="5.10" departSpeed="0.00" departDelay="0.17" arrival="58.00" arrivalLane="W_o_3" arrivalPos="221.49" arrivalSpeed="30.60" duration="25.00" routeLength="513.20" waitingTime="0.00" waitingCount="0" stopTime="0.00" timeLoss="7.55" rerouteNo="0" devices="tripinfo_e-w-small.6" vType="passenger" speedFactor="1.12" vaporized=""/>
    <tripinfo id="e-w-medium.1" depart="28.00" departLane="E_i_4" departPos="7.20" departSpeed="0.00" departDelay="0.52" arrival="61.00" arrivalLane="W_o_5" arrivalPos="221.49" arrivalSpeed="29.52" duration="33.00" routeLength="511.10" waitingTime="0.00" waitingCount="0" stopTime="0.00" timeLoss="15.01" rerouteNo="0" devices="tripinfo_e-w-medium.1" vType="truck" speedFactor="1.07" vaporized=""/>
    <tripinfo id="s-e-small.3" depart="39.00" departLane="S_i_2" departPos="5.10" departSpeed="0.00" departDelay="0.29" arrival="64.00" arrivalLane="E_o_1" arrivalPos="133.21" arrivalSpeed="27.92" duration="25.00" routeLength="476.99" waitingTime="0.00" waitingCount="0" stopTime="0.00" timeLoss="7.61" rerouteNo="0" devices="tripinfo_s-e-small.3" vType="passenger" speedFactor="1.04" vaporized=""/>
    <tripinfo id="e-w-small.7" depart="39.00" departLane="E_i_3" departPos="5.10" departSpeed="0.00" departDelay="0.70" arrival="66.00" arrivalLane="W_o_4" arrivalPos="221.49" arrivalSpeed="24.58" duration="27.00" routeLength="513.20" waitingTime="0.00" waitingCount="0" stopTime="0.00" timeLoss="6.17" rerouteNo="0" devices="tripinfo_e-w-small.7" vType="passenger" speedFactor="0.91" vaporized=""/>
    <tripinfo id="e-s-small.3" depart="34.00" departLane="E_i_5" departPos="5.10" departSpeed="0.00" departDelay="0.67" arrival="67.00" arrivalLane="S_o_3" arrivalPos="214.05" arrivalSpeed="27.72" duration="33.00" routeLength="529.08" waitingTime="0.00" waitingCount="0" stopTime="0.00" timeLoss="12.02" rerouteNo="0" devices="tripinfo_e-s-small.3" vType="passenger" speedFactor="1.02" vaporized=""/>
    <tripinfo id="e-w-small.8" depart="44.00" departLane="E_i_1" departPos="5.10" departSpeed="0.00" departDelay="0.23" arrival="71.00" arrivalLane="W_o_1" arrivalPos="221.49" arrivalSpeed="25.29" duration="27.00" routeLength="513.20" waitingTime="0.00" waitingCount="0" stopTime="0.00" timeLoss="7.12" rerouteNo="0" devices="tripinfo_e-w-small.8" vType="passenger" speedFactor="0.94" vaporized=""/>
    <tripinfo id="e-s-small.4" depart="45.00" departLane="E_i_6" departPos="5.10" departSpeed="0.00" departDelay="0.56" arrival="78.00" arrivalLane="S_o_4" arrivalPos="214.05" arrivalSpeed="26.18" duration="33.00" routeLength="523.93" waitingTime="0.00" waitingCount="0" stopTime="0.00" timeLoss="10.84" rerouteNo="0" devices="tripinfo_e-s-small.4" vType="passenger" speedFactor="0.96" vaporized=""/>
    <tripinfo id="s-e-small.4" depart="52.00" departLane="S_i_2" departPos="5.10" departSpeed="0.00" departDelay="0.39" arrival="78.00" arrivalLane="E_o_1" arrivalPos="133.21" arrivalSpeed="28.61" duration="26.00" routeLength="476.99" waitingTime="0.00" waitingCount="0" stopTime="0.00" timeLoss="8.37" rerouteNo="0" devices="tripinfo_s-e-small.4" vType="passenger" speedFactor="1.03" vaporized=""/>
    <tripinfo id="w-s-small.1" depart="52.00" departLane="W_i_1" departPos="5.10" departSpeed="0.00" departDelay="0.57" arrival="82.00" arrivalLane="S_o_1" arrivalPos="214.05" arrivalSpeed="28.98" duration="30.00" routeLength="481.46" waitingTime="0.00" waitingCount="0" stopTime="0.00" timeLoss="13.04" rerouteNo="0" devices="tripinfo_w-s-small.1" vType="passenger" speedFactor="1.09" vaporized=""/>
    <tripinfo id="n-w-big.0" depart="0.00" departLane="N_i_1" departPos="16.60" departSpeed="0.00" departDelay="0.00" arrival="86.00" arrivalLane="W_o_1" arrivalPos="221.49" arrivalSpeed="19.25" duration="86.00" routeLength="458.45" waitingTime="31.00" waitingCount="2" stopTime="0.00" timeLoss="68.02" rerouteNo="0" devices="tripinfo_n-w-big.0" vType="trailer" speedFactor="1.08" vaporized=""/>
    <tripinfo id="n-w-bus.0" depart="6.00" departLane="N_i_1" departPos="12.10" departSpeed="0.00" departDelay="6.00" arrival="91.00" arrivalLane="W_o_1" arrivalPos="221.49" arrivalSpeed="21.47" duration="85.00" routeLength="462.95" waitingTime="25.00" waitingCount="1" stopTime="0.00" timeLoss="65.27" rerouteNo="0" devices="tripinfo_n-w-bus.0" vType="bus" speedFactor="1.00" vaporized=""/>
    <tripinfo id="s-n-bus.0" depart="0.00" departLane="S_i_4" departPos="12.10" departSpeed="0.00" departDelay="0.00" arrival="93.00" arrivalLane="N_o_3" arrivalPos="211.44" arrivalSpeed="21.89" duration="93.00" routeLength="527.51" waitingTime="41.00" waitingCount="1" stopTime="0.00" timeLoss="70.90" rerouteNo="0" devices="tripinfo_s-n-bus.0" vType="bus" speedFactor="1.00" vaporized=""/>
    <tripinfo id="s-n-big.0" depart="0.00" departLane="S_i_3" departPos="16.60" departSpeed="0.00" departDelay="0.00" arrival="94.00" arrivalLane="N_o_1" arrivalPos="211.44" arrivalSpeed="20.64" duration="94.00" routeLength="523.01" waitingTime="39.00" waitingCount="1" stopTime="0.00" timeLoss="71.11" rerouteNo="0" devices="tripinfo_s-n-big.0" vType="trailer" speedFactor="0.94" vaporized=""/>
    <tripinfo id="s-n-small.0" depart="5.00" departLane="S_i_4" departPos="5.10" departSpeed="0.00" departDelay="5.00" arrival="95.00" arrivalLane="N_o_3" arrivalPos="211.44" arrivalSpeed="20.07" duration="90.00" routeLength="534.51" waitingTime="40.00" waitingCount="1" stopTime="0.00" timeLoss="66.61" rerouteNo="0" devices="tripinfo_s-n-small.0" vType="passenger" speedFactor="0.95" vaporized=""/>
    <tripinfo id="s-n-medium.0" depart="5.00" departLane="S_i_3" departPos="7.20" departSpeed="0.00" departDelay="5.00" arrival="96.00" arrivalLane="N_o_1" arrivalPos="211.44" arrivalSpeed="21.05" duration="91.00" routeLength="532.41" waitingTime="38.00" waitingCount="1" stopTime="0.00" timeLoss="68.23" rerouteNo="0" devices="tripinfo_s-n-medium.0" vType="truck" speedFactor="0.96" vaporized=""/>
    <tripinfo id="s-e-medium.1" depart="64.00" departLane="S_i_2" departPos="7.20" departSpeed="0.00" departDelay="0.84" arrival="96.00" arrivalLane="E_o_1" arrivalPos="133.21" arrivalSpeed="28.79" duration="32.00" routeLength="474.89" waitingTime="0.00" waitingCount="0" stopTime="0.00" timeLoss="14.15" rerouteNo="0" devices="tripinfo_s-e-medium.1" vType="truck" speedFactor="1.05" vaporized=""/>
    <tripinfo id="s-w-big.0" depart="0.00" departLane="S_i_5" departPos="16.60" departSpeed="0.00" departDelay="0.00" arrival="97.00" arrivalLane="W_o_5" arrivalPos="221.49" arrivalSpeed="20.09" duration="97.00" routeLength="527.32" waitingTime="40.00" waitingCount="1" stopTime="0.00" timeLoss="77.00" rerouteNo="0" devices="tripinfo_s-w-big.0" vType="trailer" speedFactor="1.07" vaporized=""/>
    <tripinfo id="s-n-small.2" depart="37.00" departLane="S_i_3" departPos="5.10" departSpeed="0.00" departDelay="0.27" arrival="97.00" arrivalLane="N_o_3" arrivalPos="211.44" arrivalSpeed="18.38" duration="60.00" routeLength="534.51" waitingTime="13.00" waitingCount="1" stopTime="0.00" timeLoss="34.91" rerouteNo="0" devices="tripinfo_s-n-small.2" vType="passenger" speedFactor="0.88" vaporized=""/>
    <tripinfo id="s-n-small.1" depart="19.00" departLane="S_i_3" departPos="5.10" departSpeed="0.00" departDelay="0.63" arrival="98.00" arrivalLane="N_o_1" arrivalPos="211.44" arrivalSpeed="19.92" duration="79.00" routeLength="534.51" waitingTime="29.00" waitingCount="2" stopTime="0.00" timeLoss="54.55" rerouteNo="0" devices="tripinfo_s-n-small.1" vType="passenger" speedFactor="0.90" vaporized=""/>
    <tripinfo id="s-e-small.5" depart="68.00" departLane="S_i_2" departPos="5.10" departSpeed="0.00" departDelay="3.48" arrival="98.00" arrivalLane="E_o_1" arrivalPos="133.21" arrivalSpeed="24.63" duration="30.00" routeLength="476.99" waitingTime="0.00" waitingCount="0" stopTime="0.00" timeLoss="10.11" rerouteNo="0" devices="tripinfo_s-e-small.5" vType="passenger" speedFactor="0.91" vaporized=""/>
    <tripinfo id="s-w-bus.0" depart="6.00" departLane="S_i_5" departPos="12.10" departSpeed="0.00" departDelay="6.00" arrival="99.00" arrivalLane="W_o_5" arrivalPos="221.49" arrivalSpeed="21.60" duration="93.00" routeLength="531.82" waitingTime="38.00" waitingCount="1" stopTime="0.00" timeLoss="71.70" rerouteNo="0" devices="tripinfo_s-w-bus.0" vType="bus" speedFactor="1.00" vaporized=""/>
    <tripinfo id="s-n-small.3" depart="56.00" departLane="S_i_3" departPos="5.10" departSpeed="0.00" departDelay="0.90" arrival="99.00" arrivalLane="N_o_1" arrivalPos="211.44" arrivalSpeed="21.43" duration="43.00" routeLength="534.51" waitingTime="0.00" waitingCount="0" stopTime="0.00" timeLoss="20.89" rerouteNo="0" devices="tripinfo_s-n-small.3" vType="passenger" speedFactor="0.98" vaporized=""/>
    <tripinfo id="n-w-medium.0" depart="11.00" departLane="N_i_1" departPos="7.20" departSpeed="0.00" departDelay="11.00" arrival="101.00" arrivalLane="W_o_1" arrivalPos="221.49" arrivalSpeed="20.78" duration="90.00" routeLength="467.85" waitingTime="25.00" waitingCount="2" stopTime="0.00" timeLoss="70.62" rerouteNo="0" devices="tripinfo_n-w-medium.0" vType="truck" speedFactor="1.01" vaporized=""/>
    <tripinfo id="s-w-medium.0" depart="8.00" departLane="S_i_4" departPos="7.20" departSpeed="0.00" departDelay="8.00" arrival="101.00" arrivalLane="W_o_4" arrivalPos="221.49" arrivalSpeed="22.01" duration="93.00" routeLength="542.78" waitingTime="36.00" waitingCount="1" stopTime="0.00" timeLoss="70.31" rerouteNo="0" devices="tripinfo_s-w-medium.0" vType="truck" speedFactor="0.97" vaporized=""/>
    <tripinfo id="s-w-small.0" depart="10.00" departLane="S_i_5" departPos="5.10" departSpeed="0.00" departDelay="10.00" arrival="101.00" arrivalLane="W_o_5" arrivalPos="221.49" arrivalSpeed="26.02" duration="91.00" routeLength="538.82" waitingTime="39.00" waitingCount="1" stopTime="0.00" timeLoss="72.30" rerouteNo="0" devices="tripinfo_s-w-small.0" vType="passenger" speedFactor="1.18" vaporized=""/>
    <tripinfo id="n-w-small.0" depart="15.00" departLane="N_i_1" departPos="5.10" departSpeed="0.00" departDelay="15.00" arrival="103.00" arrivalLane="W_o_1" arrivalPos="221.49" arrivalSpeed="23.05" duration="88.00" routeLength="469.95" waitingTime="25.00" waitingCount="3" stopTime="0.00" timeLoss="68.28" rerouteNo="0" devices="tripinfo_n-w-small.0" vType="passenger" speedFactor="1.01" vaporized=""/>
    <tripinfo id="s-w-small.1" depart="39.00" departLane="S_i_4" departPos="5.10" departSpeed="0.00" departDelay="0.29" arrival="103.00" arrivalLane="W_o_4" arrivalPos="221.49" arrivalSpeed="24.52" duration="64.00" routeLength="544.88" waitingTime="16.00" waitingCount="1" stopTime="0.00" timeLoss="42.11" rerouteNo="0" devices="tripinfo_s-w-small.1" vType="passenger" speedFactor="1.02" vaporized=""/>
    <tripinfo id="s-e-small.6" depart="78.00" departLane="S_i_2" departPos="5.10" departSpeed="0.00" departDelay="0.58" arrival="103.00" arrivalLane="E_o_1" arrivalPos="133.21" arrivalSpeed="28.48" duration="25.00" routeLength="476.99" waitingTime="0.00" waitingCount="0" stopTime="0.00" timeLoss="7.35" rerouteNo="0" devices="tripinfo_s-e-small.6" vType="passenger" speedFactor="1.03" vaporized=""/>
    <tripinfo id="s-n-small.4" depart="74.00" departLane="S_i_3" departPos="5.10" departSpeed="0.00" departDelay="0.53" arrival="105.00" arrivalLane="N_o_1" arrivalPos="211.44" arrivalSpeed="19.02" duration="31.00" routeLength="534.51" waitingTime="0.00" waitingCount="0" stopTime="0.00" timeLoss="6.09" rerouteNo="0" devices="tripinfo_s-n-small.4" vType="passenger" speedFactor="0.89" vaporized=""/>
    <tripinfo id="n-w-small.1" depart="80.00" departLane="N_i_1" departPos="5.10" departSpeed="0.00" departDelay="0.00" arrival="112.00" arrivalLane="W_o_1" arrivalPos="221.49" arrivalSpeed="25.57" duration="32.00" routeLength="469.95" waitingTime="0.00" waitingCount="0" stopTime="0.00" timeLoss="10.76" rerouteNo="0" devices="tripinfo_n-w-small.1" vType="passenger" speedFactor="0.93" vaporized=""/>
    <tripinfo id="w-e-small.9" depart="58.00" departLane="W_i_2" departPos="5.10" departSpeed="0.00" departDelay="0.96" arrival="114.00" arrivalLane="E_o_1" arrivalPos="133.21" arrivalSpeed="28.12" duration="56.00" routeLength="466.89" waitingTime="24.00" waitingCount="2" stopTime="0.00" timeLoss="40.84" rerouteNo="0" devices="tripinfo_w-e-small.9" vType="passenger" speedFactor="1.04" vaporized=""/>
    <tripinfo id="s-w-small.2" depart="78.00" departLane="S_i_4" departPos="5.10" departSpeed="0.00" departDelay="0.58" arrival="114.00" arrivalLane="W_o_4" arrivalPos="221.49" arrivalSpeed="28.59" duration="36.00" routeLength="544.88" waitingTime="0.00" waitingCount="0" stopTime="0.00" timeLoss="15.70" rerouteNo="0" devices="tripinfo_s-w-small.2" vType="passenger" speedFactor="1.06" vaporized=""/>
    <tripinfo id="s-e-small.7" depart="91.00" departLane="S_i_2" departPos="5.10" departSpeed="0.00" departDelay="0.68" arrival="117.00" arrivalLane="E_o_1" arrivalPos="133.21" arrivalSpeed="27.96" duration="26.00" routeLength="476.99" waitingTime="0.00" waitingCount="0" stopTime="0.00" timeLoss="7.81" rerouteNo="0" devices="tripinfo_s-e-small.7" vType="passenger" speedFactor="1.02" vaporized=""/>
    <tripinfo id="w-e-small.0" depart="0.00" departLane="W_i_4" departPos="5.10" departSpeed="0.00" departDelay="0.00" arrival="118.00" arrivalLane="E_o_2" arrivalPos="133.21" arrivalSpeed="32.25" duration="118.00" routeLength="510.24" waitingTime="82.00" waitingCount="1" stopTime="0.00" timeLoss="101.53" rerouteNo="0" devices="tripinfo_w-e-small.0" vType="passenger" speedFactor="1.17" vaporized=""/>
    <tripinfo id="w-e-small.13" depart="83.00" departLane="W_i_3" departPos="5.10" departSpeed="0.00" departDelay="0.61" arrival="119.00" arrivalLane="E_o_1" arrivalPos="133.21" arrivalSpeed="29.42" duration="36.00" routeLength="466.89" waitingTime="3.00" waitingCount="2" stopTime="0.00" timeLoss="21.47" rerouteNo="0" devices="tripinfo_w-e-small.13" vType="passenger" speedFactor="1.10" vaporized=""/>
    <tripinfo id="w-e-small.1" depart="7.00" departLane="W_i_5" departPos="5.10" departSpeed="0.00" departDelay="0.66" arrival="120.00" arrivalLane="E_o_3" arrivalPos="133.21" arrivalSpeed="24.00" duration="113.00" routeLength="510.24" waitingTime="76.00" waitingCount="1" stopTime="0.00" timeLoss="91.73" rerouteNo="0" devices="tripinfo_w-e-small.1" vType="passenger" speedFactor="0.90" vaporized=""/>
    <tripinfo id="w-e-small.5" depart="32.00" departLane="W_i_5" departPos="5.10" departSpeed="0.00" departDelay="0.31" arrival="121.00" arrivalLane="E_o_3" arrivalPos="133.21" arrivalSpeed="25.71" duration="89.00" routeLength="510.24" waitingTime="50.00" waitingCount="1" stopTime="0.00" timeLoss="71.61" rerouteNo="0" devices="tripinfo_w-e-small.5" vType="passenger" speedFactor="1.08" vaporized=""/>
    <tripinfo id="w-e-medium.0" depart="0.00" departLane="W_i_3" departPos="7.20" departSpeed="0.00" departDelay="0.00" arrival="126.00" arrivalLane="E_o_2" arrivalPos="133.21" arrivalSpeed="23.33" duration="126.00" routeLength="508.14" waitingTime="79.00" waitingCount="1" stopTime="0.00" timeLoss="107.70" rerouteNo="0" devices="tripinfo_w-e-medium.0" vType="truck" speedFactor="1.00" vaporized=""/>
    <tripinfo id="w-n-bus.0" depart="0.00" departLane="W_i_6" departPos="12.10" departSpeed="0.00" departDelay="0.00" arrival="126.00" arrivalLane="N_o_4" arrivalPos="211.44" arrivalSpeed="21.64" duration="126.00" routeLength="503.18" waitingTime="76.00" waitingCount="1" stopTime="0.00" timeLoss="103.56" rerouteNo="0" devices="tripinfo_w-n-bus.0" vType="bus" speedFactor="1.00" vaporized=""/>
    <tripinfo id="w-e-big.0" depart="0.00" departLane="W_i_2" departPos="16.60" departSpeed="0.00" departDelay="0.00" arrival="128.00" arrivalLane="E_o_1" arrivalPos="133.21" arrivalSpeed="21.35" duration="128.00" routeLength="498.74" waitingTime="76.00" waitingCount="1" stopTime="0.00" timeLoss="110.80" rerouteNo="0" devices="tripinfo_w-e-big.0" vType="trailer" speedFactor="1.08" vaporized=""/>
    <tripinfo id="w-e-small.2" depart="13.00" departLane="W_i_4" departPos="5.10" departSpeed="0.00" departDelay="0.32" arrival="128.00" arrivalLane="E_o_2" arrivalPos="133.21" arrivalSpeed="24.76" duration="115.00" routeLength="510.24" waitingTime="74.00" waitingCount="1" stopTime="0.00" timeLoss="96.86" rerouteNo="0" devices="tripinfo_w-e-small.2" vType="passenger" speedFactor="1.04" vaporized=""/>
    <tripinfo id="w-e-small.12" depart="77.00" departLane="W_i_2" departPos="5.10" departSpeed="0.00" departDelay="0.94" arrival="128.00" arrivalLane="E_o_4" arrivalPos="133.21" arrivalSpeed="29.14" duration="51.00" routeLength="502.10" waitingTime="7.00" waitingCount="2" stopTime="0.00" timeLoss="34.86" rerouteNo="0" devices="tripinfo_w-e-small.12" vType="passenger" speedFactor="1.07" vaporized=""/>
    <tripinfo id="w-e-medium.1" depart="30.00" departLane="W_i_4" departPos="7.20" departSpeed="0.00" departDelay="0.49" arrival="129.00" arrivalLane="E_o_3" arrivalPos="133.21" arrivalSpeed="23.57" duration="99.00" routeLength="508.14" waitingTime="49.00" waitingCount="1" stopTime="0.00" timeLoss="80.58" rerouteNo="0" devices="tripinfo_w-e-medium.1" vType="truck" speedFactor="1.01" vaporized=""/>
    <tripinfo id="w-e-small.3" depart="20.00" departLane="W_i_3" departPos="5.10" departSpeed="0.00" departDelay="0.99" arrival="130.00" arrivalLane="E_o_1" arrivalPos="133.21" arrivalSpeed="23.20" duration="110.00" routeLength="510.24" waitingTime="63.00" waitingCount="1" stopTime="0.00" timeLoss="88.27" rerouteNo="0" devices="tripinfo_w-e-small.3" vType="passenger" speedFactor="0.88" vaporized=""/>
    <tripinfo id="w-e-small.4" depart="26.00" departLane="W_i_2" departPos="5.10" departSpeed="0.00" departDelay="0.65" arrival="130.00" arrivalLane="E_o_2" arrivalPos="133.21" arrivalSpeed="24.37" duration="104.00" routeLength="510.24" waitingTime="60.00" waitingCount="1" stopTime="0.00" timeLoss="85.04" rerouteNo="0" devices="tripinfo_w-e-small.4" vType="passenger" speedFactor="1.00" vaporized=""/>
    <tripinfo id="w-n-medium.0" depart="5.00" departLane="W_i_6" departPos="7.20" departSpeed="0.00" departDelay="5.00" arrival="131.00" arrivalLane="N_o_4" arrivalPos="211.44" arrivalSpeed="21.72" duration="126.00" routeLength="508.08" waitingTime="75.00" waitingCount="1" stopTime="0.00" timeLoss="103.83" rerouteNo="0" devices="tripinfo_w-n-medium.0" vType="truck" speedFactor="1.00" vaporized=""/>
    <tripinfo id="w-e-small.6" depart="39.00" departLane="W_i_2" departPos="5.10" departSpeed="0.00" departDelay="0.97" arrival="131.00" arrivalLane="E_o_1" arrivalPos="133.21" arrivalSpeed="24.45" duration="92.00" routeLength="510.24" waitingTime="46.00" waitingCount="1" stopTime="0.00" timeLoss="71.39" rerouteNo="0" devices="tripinfo_w-e-small.6" vType="passenger" speedFactor="0.91" vaporized=""/>
    <tripinfo id="w-e-small.7" depart="45.00" departLane="W_i_3" departPos="5.10" departSpeed="0.00" departDelay="0.63" arrival="131.00" arrivalLane="E_o_2" arrivalPos="133.21" arrivalSpeed="24.54" duration="86.00" routeLength="510.24" waitingTime="43.00" waitingCount="1" stopTime="0.00" timeLoss="68.46" rerouteNo="0" devices="tripinfo_w-e-small.7" vType="passenger" speedFactor="1.06" vaporized=""/>
    <tripinfo id="w-e-small.8" depart="51.00" departLane="W_i_4" departPos="5.10" departSpeed="0.00" departDelay="0.30" arrival="131.00" arrivalLane="E_o_3" arrivalPos="133.21" arrivalSpeed="27.94" duration="80.00" routeLength="510.24" waitingTime="35.00" waitingCount="1" stopTime="0.00" timeLoss="60.79" rerouteNo="0" devices="tripinfo_w-e-small.8" vType="passenger" speedFactor="1.01" vaporized=""/>